Program Version,EnergyPlus, Version 9.4.0-998c4b761e, YMD=2026.03.04 19:36
1,5,Environment Title[],Latitude[deg],Longitude[deg],Time Zone[],Elevation[m]
2,8,Day of Simulation[],Month[],Day of Month[],DST Indicator[1=yes 0=no],Hour[],StartMinute[],EndMinute[],DayType
3,5,Cumulative Day of Simulation[],Month[],Day of Month[],DST Indicator[1=yes 0=no],DayType  ! When Daily Meters Requested
4,2,Cumulative Days of Simulation[],Month[]  ! When Monthly Meters Requested
5,1,Cumulative Days of Simulation[] ! When Run Period Meters Requested
6,1,Calendar Year of Simulation[] ! When Annual Meters Requested
582,1,Heating:EnergyTransfer [J] !Hourly
619,1,Cooling:EnergyTransfer [J] !Hourly
1064,1,DistrictHeating:HVAC [J] !Hourly
1113,1,DistrictCooling:HVAC [J] !Hourly
End of Data Dictionary
1,RUN PERIOD 1,  50.80,   6.02,   1.00, 232.00
2,1, 1, 1, 0, 1, 0.00,60.00,Tuesday
582,6122316.451459692
619,0.0
1064,6122316.451459691
1113,0.0
2,1, 1, 1, 0, 2, 0.00,60.00,Tuesday
582,5383001.621108975
619,0.0
1064,5383001.621108975
1113,0.0
2,1, 1, 1, 0, 3, 0.00,60.00,Tuesday
582,5450618.524369155
619,0.0
1064,5450618.524369155
1113,0.0
2,1, 1, 1, 0, 4, 0.00,60.00,Tuesday
582,5511764.4497186359
619,0.0
1064,5511764.4497186359
1113,0.0
2,1, 1, 1, 0, 5, 0.00,60.00,Tuesday
582,5604615.114370087
619,0.0
1064,5604615.114370087
1113,0.0
2,1, 1, 1, 0, 6, 0.00,60.00,Tuesday
582,5709438.683990393
619,0.0
1064,5709438.683990393
1113,0.0
2,1, 1, 1, 0, 7, 0.00,60.00,Tuesday
582,5250820.588755895
619,0.0
1064,5250820.588755896
1113,0.0
2,1, 1, 1, 0, 8, 0.00,60.00,Tuesday
582,4808951.424674169
619,0.0
1064,4808951.424674169
1113,0.0
2,1, 1, 1, 0, 9, 0.00,60.00,Tuesday
582,5264993.899799965
619,0.0
1064,5264993.899799966
1113,0.0
2,1, 1, 1, 0,10, 0.00,60.00,Tuesday
582,5085732.301767576
619,0.0
1064,5085732.301767576
1113,0.0
2,1, 1, 1, 0,11, 0.00,60.00,Tuesday
582,4614436.442540726
619,0.0
1064,4614436.442540726
1113,0.0
2,1, 1, 1, 0,12, 0.00,60.00,Tuesday
582,3621022.412488109
619,0.0
1064,3621034.7236156549
1113,0.0
2,1, 1, 1, 0,13, 0.00,60.00,Tuesday
582,3513884.163595088
619,0.0
1064,3513884.163595088
1113,0.0
2,1, 1, 1, 0,14, 0.00,60.00,Tuesday
582,3777937.8335927978
619,0.0
1064,3777937.8335927978
1113,0.0
2,1, 1, 1, 0,15, 0.00,60.00,Tuesday
582,3751897.4915907105
619,0.0
1064,3751895.4725824755
1113,0.0
2,1, 1, 1, 0,16, 0.00,60.00,Tuesday
582,3944927.390259231
619,0.0
1064,3944927.3902592316
1113,0.0
2,1, 1, 1, 0,17, 0.00,60.00,Tuesday
582,3727572.9543747536
619,0.0
1064,3727576.5140588826
1113,0.0
2,1, 1, 1, 0,18, 0.00,60.00,Tuesday
582,3855960.7285939014
619,0.0
1064,3855960.728593901
1113,0.0
2,1, 1, 1, 0,19, 0.00,60.00,Tuesday
582,4336200.885455709
619,0.0
1064,4336200.885455708
1113,0.0
2,1, 1, 1, 0,20, 0.00,60.00,Tuesday
582,4300070.781823356
619,0.0
1064,4300070.781823356
1113,0.0
2,1, 1, 1, 0,21, 0.00,60.00,Tuesday
582,4960495.241137043
619,0.0
1064,4960495.241137043
1113,0.0
2,1, 1, 1, 0,22, 0.00,60.00,Tuesday
582,5124717.502045539
619,0.0
1064,5124717.50204554
1113,0.0
2,1, 1, 1, 0,23, 0.00,60.00,Tuesday
582,5828630.735245472
619,0.0
1064,5828630.73524547
1113,0.0
2,1, 1, 1, 0,24, 0.00,60.00,Tuesday
582,6090351.17236113
619,0.0
1064,6090351.172361129
1113,0.0
2,2, 1, 2, 0, 1, 0.00,60.00,Wednesday
582,6656479.062381597
619,0.0
1064,6656479.062381597
1113,0.0
2,2, 1, 2, 0, 2, 0.00,60.00,Wednesday
582,6200396.49338895
619,0.0
1064,6200396.49338895
1113,0.0
2,2, 1, 2, 0, 3, 0.00,60.00,Wednesday
582,6339049.504687514
619,0.0
1064,6339049.504687514
1113,0.0
2,2, 1, 2, 0, 4, 0.00,60.00,Wednesday
582,6510868.120908422
619,0.0
1064,6510868.120908422
1113,0.0
2,2, 1, 2, 0, 5, 0.00,60.00,Wednesday
582,6630082.58693545
619,0.0
1064,6630082.586935451
1113,0.0
2,2, 1, 2, 0, 6, 0.00,60.00,Wednesday
582,6717797.8889129669
619,0.0
1064,6717797.888912966
1113,0.0
2,2, 1, 2, 0, 7, 0.00,60.00,Wednesday
582,6226875.343185444
619,0.0
1064,6226875.343185444
1113,0.0
2,2, 1, 2, 0, 8, 0.00,60.00,Wednesday
582,5756921.26069125
619,0.0
1064,5756921.26069125
1113,0.0
2,2, 1, 2, 0, 9, 0.00,60.00,Wednesday
582,6191153.001809539
619,0.0
1064,6191153.001809538
1113,0.0
2,2, 1, 2, 0,10, 0.00,60.00,Wednesday
582,5991384.959930448
619,0.0
1064,5991384.959930448
1113,0.0
2,2, 1, 2, 0,11, 0.00,60.00,Wednesday
582,5384029.305229127
619,0.0
1064,5384029.305229128
1113,0.0
2,2, 1, 2, 0,12, 0.00,60.00,Wednesday
582,4210277.03377296
619,0.0
1064,4210218.647771646
1113,0.0
2,2, 1, 2, 0,13, 0.00,60.00,Wednesday
582,3934597.5389951916
619,0.0
1064,3934597.538995192
1113,0.0
2,2, 1, 2, 0,14, 0.00,60.00,Wednesday
582,4068477.1512354898
619,0.0
1064,4068477.1512354898
1113,0.0
2,2, 1, 2, 0,15, 0.00,60.00,Wednesday
582,3929020.450403297
619,0.0
1064,3928992.0043121085
1113,0.0
2,2, 1, 2, 0,16, 0.00,60.00,Wednesday
582,4009862.981538351
619,0.0
1064,4009862.9815383509
1113,0.0
2,2, 1, 2, 0,17, 0.00,60.00,Wednesday
582,3772691.34047463
619,0.0
1064,3772660.9342202965
1113,0.0
2,2, 1, 2, 0,18, 0.00,60.00,Wednesday
582,3913871.846545385
619,0.0
1064,3913871.846545385
1113,0.0
2,2, 1, 2, 0,19, 0.00,60.00,Wednesday
582,4363252.191834933
619,0.0
1064,4363252.191834934
1113,0.0
2,2, 1, 2, 0,20, 0.00,60.00,Wednesday
582,4183353.089169912
619,0.0
1064,4183353.089169912
1113,0.0
2,2, 1, 2, 0,21, 0.00,60.00,Wednesday
582,4655789.334552089
619,0.0
1064,4655789.334552089
1113,0.0
2,2, 1, 2, 0,22, 0.00,60.00,Wednesday
582,4603399.671798704
619,0.0
1064,4603399.671798704
1113,0.0
2,2, 1, 2, 0,23, 0.00,60.00,Wednesday
582,5434435.051218595
619,0.0
1064,5434435.051218595
1113,0.0
2,2, 1, 2, 0,24, 0.00,60.00,Wednesday
582,6036523.392859186
619,0.0
1064,6036523.392859186
1113,0.0
2,3, 1, 3, 0, 1, 0.00,60.00,Thursday
582,6958104.220617499
619,0.0
1064,6958104.220617499
1113,0.0
2,3, 1, 3, 0, 2, 0.00,60.00,Thursday
582,8981418.053973997
619,0.0
1064,8980609.81529215
1113,0.0
2,3, 1, 3, 0, 3, 0.00,60.00,Thursday
582,8987729.782335448
619,0.0
1064,8987729.782335446
1113,0.0
2,3, 1, 3, 0, 4, 0.00,60.00,Thursday
582,9029892.635280386
619,0.0
1064,9029892.635280386
1113,0.0
2,3, 1, 3, 0, 5, 0.00,60.00,Thursday
582,9104346.809261794
619,0.0
1064,9104346.809261794
1113,0.0
2,3, 1, 3, 0, 6, 0.00,60.00,Thursday
582,9148697.806091799
619,0.0
1064,9148697.806091799
1113,0.0
2,3, 1, 3, 0, 7, 0.00,60.00,Thursday
582,8654762.433589248
619,0.0
1064,8654762.43358925
1113,0.0
2,3, 1, 3, 0, 8, 0.00,60.00,Thursday
582,7702821.301736395
619,0.0
1064,7702821.301736394
1113,0.0
2,3, 1, 3, 0, 9, 0.00,60.00,Thursday
582,4645803.025447899
619,0.0
1064,4645803.025447899
1113,0.0
2,3, 1, 3, 0,10, 0.00,60.00,Thursday
582,4460821.774222191
619,0.0
1064,4460821.774222191
1113,0.0
2,3, 1, 3, 0,11, 0.00,60.00,Thursday
582,6885620.484817022
619,0.0
1064,6885620.484817022
1113,0.0
2,3, 1, 3, 0,12, 0.00,60.00,Thursday
582,6574969.065967456
619,0.0
1064,6574975.470235933
1113,0.0
2,3, 1, 3, 0,13, 0.00,60.00,Thursday
582,6134030.795276479
619,0.0
1064,6134030.79527648
1113,0.0
2,3, 1, 3, 0,14, 0.00,60.00,Thursday
582,6103692.092386207
619,0.0
1064,6103692.092386207
1113,0.0
2,3, 1, 3, 0,15, 0.00,60.00,Thursday
582,5723809.235572282
619,0.0
1064,5723863.768836606
1113,0.0
2,3, 1, 3, 0,16, 0.00,60.00,Thursday
582,5737933.32725702
619,0.0
1064,5737933.32725702
1113,0.0
2,3, 1, 3, 0,17, 0.00,60.00,Thursday
582,5716962.016006803
619,0.0
1064,5717038.565150465
1113,0.0
2,3, 1, 3, 0,18, 0.00,60.00,Thursday
582,6192516.148936649
619,0.0
1064,6192516.148936649
1113,0.0
2,3, 1, 3, 0,19, 0.00,60.00,Thursday
582,5015734.547185258
619,0.0
1064,5015742.073842288
1113,0.0
2,3, 1, 3, 0,20, 0.00,60.00,Thursday
582,3003067.334675732
619,0.0
1064,3003067.3346757318
1113,0.0
2,3, 1, 3, 0,21, 0.00,60.00,Thursday
582,3583282.7242917439
619,0.0
1064,3583282.7242917439
1113,0.0
2,3, 1, 3, 0,22, 0.00,60.00,Thursday
582,3690901.8711145038
619,0.0
1064,3690901.8711145038
1113,0.0
2,3, 1, 3, 0,23, 0.00,60.00,Thursday
582,4557739.115958302
619,0.0
1064,4557739.115958303
1113,0.0
2,3, 1, 3, 0,24, 0.00,60.00,Thursday
582,5710541.079278208
619,0.0
1064,5710541.079278208
1113,0.0
2,4, 1, 4, 0, 1, 0.00,60.00,Friday
582,6102499.418849705
619,0.0
1064,6102499.418849706
1113,0.0
2,4, 1, 4, 0, 2, 0.00,60.00,Friday
582,8187282.57910576
619,0.0
1064,8186947.647584475
1113,0.0
2,4, 1, 4, 0, 3, 0.00,60.00,Friday
582,6519042.307994921
619,0.0
1064,6519040.785457127
1113,0.0
2,4, 1, 4, 0, 4, 0.00,60.00,Friday
582,4737408.667098477
619,0.0
1064,4737408.6670984779
1113,0.0
2,4, 1, 4, 0, 5, 0.00,60.00,Friday
582,4807942.54721994
619,0.0
1064,4807942.54721994
1113,0.0
2,4, 1, 4, 0, 6, 0.00,60.00,Friday
582,4797220.362884845
619,0.0
1064,4797220.362884846
1113,0.0
2,4, 1, 4, 0, 7, 0.00,60.00,Friday
582,4250388.343307462
619,0.0
1064,4250388.343307462
1113,0.0
2,4, 1, 4, 0, 8, 0.00,60.00,Friday
582,3794409.0165047228
619,0.0
1064,3794409.0165047228
1113,0.0
2,4, 1, 4, 0, 9, 0.00,60.00,Friday
582,4255000.1853883159
619,0.0
1064,4255000.1853883159
1113,0.0
2,4, 1, 4, 0,10, 0.00,60.00,Friday
582,4123360.1187971218
619,0.0
1064,4123360.1187971218
1113,0.0
2,4, 1, 4, 0,11, 0.00,60.00,Friday
582,3710144.4975442907
619,0.0
1064,3710144.4975442907
1113,0.0
2,4, 1, 4, 0,12, 0.00,60.00,Friday
582,4169346.8464197369
619,0.0
1064,4169329.696915761
1113,0.0
2,4, 1, 4, 0,13, 0.00,60.00,Friday
582,6381327.182614018
619,0.0
1064,6381327.182614017
1113,0.0
2,4, 1, 4, 0,14, 0.00,60.00,Friday
582,6408928.900026567
619,0.0
1064,6408928.900026566
1113,0.0
2,4, 1, 4, 0,15, 0.00,60.00,Friday
582,6123511.749411279
619,0.0
1064,6123530.667935867
1113,0.0
2,4, 1, 4, 0,16, 0.00,60.00,Friday
582,6110762.315745806
619,0.0
1064,6110762.315745806
1113,0.0
2,4, 1, 4, 0,17, 0.00,60.00,Friday
582,5863961.336935769
619,0.0
1064,5863964.876118947
1113,0.0
2,4, 1, 4, 0,18, 0.00,60.00,Friday
582,6066298.053530448
619,0.0
1064,6066298.053530448
1113,0.0
2,4, 1, 4, 0,19, 0.00,60.00,Friday
582,6609181.706612369
619,0.0
1064,6609181.706612369
1113,0.0
2,4, 1, 4, 0,20, 0.00,60.00,Friday
582,5727631.183119652
619,0.0
1064,5727631.183119651
1113,0.0
2,4, 1, 4, 0,21, 0.00,60.00,Friday
582,3461007.817758433
619,0.0
1064,3461007.8177584328
1113,0.0
2,4, 1, 4, 0,22, 0.00,60.00,Friday
582,3644306.890149844
619,0.0
1064,3644306.8901498445
1113,0.0
2,4, 1, 4, 0,23, 0.00,60.00,Friday
582,4650182.760141326
619,0.0
1064,4650182.760141326
1113,0.0
2,4, 1, 4, 0,24, 0.00,60.00,Friday
582,5363532.883109372
619,0.0
1064,5363532.883109372
1113,0.0
2,5, 1, 5, 0, 1, 0.00,60.00,Saturday
582,5433795.387666196
619,0.0
1064,5433795.387666197
1113,0.0
2,5, 1, 5, 0, 2, 0.00,60.00,Saturday
582,4533785.52251117
619,0.0
1064,4533785.52251117
1113,0.0
2,5, 1, 5, 0, 3, 0.00,60.00,Saturday
582,4620282.087058386
619,0.0
1064,4620282.087058387
1113,0.0
2,5, 1, 5, 0, 4, 0.00,60.00,Saturday
582,4736894.529047087
619,0.0
1064,4736894.529047086
1113,0.0
2,5, 1, 5, 0, 5, 0.00,60.00,Saturday
582,4811024.196103033
619,0.0
1064,4811024.196103033
1113,0.0
2,5, 1, 5, 0, 6, 0.00,60.00,Saturday
582,4856165.042913482
619,0.0
1064,4856165.042913482
1113,0.0
2,5, 1, 5, 0, 7, 0.00,60.00,Saturday
582,4349735.865905611
619,0.0
1064,4349735.865905612
1113,0.0
2,5, 1, 5, 0, 8, 0.00,60.00,Saturday
582,3889915.129057425
619,0.0
1064,3889915.129057425
1113,0.0
2,5, 1, 5, 0, 9, 0.00,60.00,Saturday
582,4328473.023869592
619,0.0
1064,4328473.023869592
1113,0.0
2,5, 1, 5, 0,10, 0.00,60.00,Saturday
582,4150066.083732778
619,0.0
1064,4150066.0837327789
1113,0.0
2,5, 1, 5, 0,11, 0.00,60.00,Saturday
582,3632788.4571176075
619,0.0
1064,3632788.4571176085
1113,0.0
2,5, 1, 5, 0,12, 0.00,60.00,Saturday
582,2608684.731213659
619,0.0
1064,2608695.456024766
1113,0.0
2,5, 1, 5, 0,13, 0.00,60.00,Saturday
582,2538959.094575089
619,0.0
1064,2538959.0945750896
1113,0.0
2,5, 1, 5, 0,14, 0.00,60.00,Saturday
582,2676291.8586598669
619,0.0
1064,2676291.858659867
1113,0.0
2,5, 1, 5, 0,15, 0.00,60.00,Saturday
582,2537847.379200766
619,0.0
1064,2537845.5861695788
1113,0.0
2,5, 1, 5, 0,16, 0.00,60.00,Saturday
582,2646417.989369443
619,0.0
1064,2646417.9893694429
1113,0.0
2,5, 1, 5, 0,17, 0.00,60.00,Saturday
582,2363798.1611761406
619,0.0
1064,2363788.287221495
1113,0.0
2,5, 1, 5, 0,18, 0.00,60.00,Saturday
582,2439276.6705147104
619,0.0
1064,2439276.6705147104
1113,0.0
2,5, 1, 5, 0,19, 0.00,60.00,Saturday
582,2849704.473114925
619,0.0
1064,2849704.473114925
1113,0.0
2,5, 1, 5, 0,20, 0.00,60.00,Saturday
582,2829765.81945497
619,0.0
1064,2829765.81945497
1113,0.0
2,5, 1, 5, 0,21, 0.00,60.00,Saturday
582,3562840.245987587
619,0.0
1064,3562840.2459875869
1113,0.0
2,5, 1, 5, 0,22, 0.00,60.00,Saturday
582,3786673.6758027917
619,0.0
1064,3786673.6758027917
1113,0.0
2,5, 1, 5, 0,23, 0.00,60.00,Saturday
582,3953994.7749808949
619,0.0
1064,3953994.7749808949
1113,0.0
2,5, 1, 5, 0,24, 0.00,60.00,Saturday
582,4346189.803723851
619,0.0
1064,4346189.803723852
1113,0.0
2,6, 1, 6, 0, 1, 0.00,60.00,Sunday
582,4404696.126039488
619,0.0
1064,4404696.126039488
1113,0.0
2,6, 1, 6, 0, 2, 0.00,60.00,Sunday
582,4747199.110234113
619,0.0
1064,4747199.110234113
1113,0.0
2,6, 1, 6, 0, 3, 0.00,60.00,Sunday
582,5270342.331278264
619,0.0
1064,5270342.331278264
1113,0.0
2,6, 1, 6, 0, 4, 0.00,60.00,Sunday
582,5861370.863384697
619,0.0
1064,5861370.863384696
1113,0.0
2,6, 1, 6, 0, 5, 0.00,60.00,Sunday
582,6366171.893657146
619,0.0
1064,6366171.893657147
1113,0.0
2,6, 1, 6, 0, 6, 0.00,60.00,Sunday
582,6289978.968678312
619,0.0
1064,6289978.968678312
1113,0.0
2,6, 1, 6, 0, 7, 0.00,60.00,Sunday
582,4561779.397192317
619,0.0
1064,4561779.397192318
1113,0.0
2,6, 1, 6, 0, 8, 0.00,60.00,Sunday
582,4312382.1341740009
619,0.0
1064,4312382.134174001
1113,0.0
2,6, 1, 6, 0, 9, 0.00,60.00,Sunday
582,4913408.178597664
619,0.0
1064,4913408.178597664
1113,0.0
2,6, 1, 6, 0,10, 0.00,60.00,Sunday
582,4891257.296739063
619,0.0
1064,4891257.296739063
1113,0.0
2,6, 1, 6, 0,11, 0.00,60.00,Sunday
582,4387596.943577448
619,0.0
1064,4387596.943577448
1113,0.0
2,6, 1, 6, 0,12, 0.00,60.00,Sunday
582,3429349.615860395
619,0.0
1064,3429586.5637178739
1113,0.0
2,6, 1, 6, 0,13, 0.00,60.00,Sunday
582,3291852.1139674878
619,0.0
1064,3291852.1139674878
1113,0.0
2,6, 1, 6, 0,14, 0.00,60.00,Sunday
582,3434112.8559542179
619,0.0
1064,3434112.8559542179
1113,0.0
2,6, 1, 6, 0,15, 0.00,60.00,Sunday
582,3186572.9357473656
619,0.0
1064,3186608.7990106998
1113,0.0
2,6, 1, 6, 0,16, 0.00,60.00,Sunday
582,3511181.7153450839
619,0.0
1064,3511235.36849667
1113,0.0
2,6, 1, 6, 0,17, 0.00,60.00,Sunday
582,3502482.3414558919
619,0.0
1064,3502511.2963944289
1113,0.0
2,6, 1, 6, 0,18, 0.00,60.00,Sunday
582,3810745.964569072
619,0.0
1064,3810745.964569072
1113,0.0
2,6, 1, 6, 0,19, 0.00,60.00,Sunday
582,4486027.166782682
619,0.0
1064,4486027.166782682
1113,0.0
2,6, 1, 6, 0,20, 0.00,60.00,Sunday
582,4579432.449465036
619,0.0
1064,4579432.449465036
1113,0.0
2,6, 1, 6, 0,21, 0.00,60.00,Sunday
582,5366576.342646579
619,0.0
1064,5366576.342646579
1113,0.0
2,6, 1, 6, 0,22, 0.00,60.00,Sunday
582,5682566.644624688
619,0.0
1064,5682566.644624688
1113,0.0
2,6, 1, 6, 0,23, 0.00,60.00,Sunday
582,5980267.299620731
619,0.0
1064,5980267.299620731
1113,0.0
2,6, 1, 6, 0,24, 0.00,60.00,Sunday
582,6544203.395621304
619,0.0
1064,6544203.395621304
1113,0.0
2,7, 1, 7, 0, 1, 0.00,60.00,Monday
582,6760887.651074382
619,0.0
1064,6760887.651074382
1113,0.0
2,7, 1, 7, 0, 2, 0.00,60.00,Monday
582,7006251.157785313
619,0.0
1064,7006251.157785313
1113,0.0
2,7, 1, 7, 0, 3, 0.00,60.00,Monday
582,7271258.388985114
619,0.0
1064,7271258.388985114
1113,0.0
2,7, 1, 7, 0, 4, 0.00,60.00,Monday
582,7562249.06081194
619,0.0
1064,7562249.060811939
1113,0.0
2,7, 1, 7, 0, 5, 0.00,60.00,Monday
582,7783833.168718168
619,0.0
1064,7783833.168718167
1113,0.0
2,7, 1, 7, 0, 6, 0.00,60.00,Monday
582,7967032.19350744
619,0.0
1064,7967032.19350744
1113,0.0
2,7, 1, 7, 0, 7, 0.00,60.00,Monday
582,7599897.705952972
619,0.0
1064,7599897.705952972
1113,0.0
2,7, 1, 7, 0, 8, 0.00,60.00,Monday
582,7282081.431306275
619,0.0
1064,7282081.431306276
1113,0.0
2,7, 1, 7, 0, 9, 0.00,60.00,Monday
582,7836855.1681825
619,0.0
1064,7836855.1681825
1113,0.0
2,7, 1, 7, 0,10, 0.00,60.00,Monday
582,7615522.280161824
619,0.0
1064,7615522.280161824
1113,0.0
2,7, 1, 7, 0,11, 0.00,60.00,Monday
582,7127901.662426844
619,0.0
1064,7127901.662426844
1113,0.0
2,7, 1, 7, 0,12, 0.00,60.00,Monday
582,5956016.314977682
619,0.0
1064,5956063.855831212
1113,0.0
2,7, 1, 7, 0,13, 0.00,60.00,Monday
582,5533089.157613148
619,0.0
1064,5533089.157613148
1113,0.0
2,7, 1, 7, 0,14, 0.00,60.00,Monday
582,5581902.960842387
619,0.0
1064,5581902.960842387
1113,0.0
2,7, 1, 7, 0,15, 0.00,60.00,Monday
582,5248143.85031705
619,0.0
1064,5248162.519210516
1113,0.0
2,7, 1, 7, 0,16, 0.00,60.00,Monday
582,5171737.553630078
619,0.0
1064,5171737.553630078
1113,0.0
2,7, 1, 7, 0,17, 0.00,60.00,Monday
582,5142719.185887811
619,0.0
1064,5142732.674089026
1113,0.0
2,7, 1, 7, 0,18, 0.00,60.00,Monday
582,5491418.515625479
619,0.0
1064,5491418.515625479
1113,0.0
2,7, 1, 7, 0,19, 0.00,60.00,Monday
582,6108209.701435056
619,0.0
1064,6108209.701435055
1113,0.0
2,7, 1, 7, 0,20, 0.00,60.00,Monday
582,6180252.145733715
619,0.0
1064,6180252.145733715
1113,0.0
2,7, 1, 7, 0,21, 0.00,60.00,Monday
582,6968989.689390987
619,0.0
1064,6968989.689390988
1113,0.0
2,7, 1, 7, 0,22, 0.00,60.00,Monday
582,7193398.785961923
619,0.0
1064,7193398.785961923
1113,0.0
2,7, 1, 7, 0,23, 0.00,60.00,Monday
582,7489785.615064192
619,0.0
1064,7489785.615064192
1113,0.0
2,7, 1, 7, 0,24, 0.00,60.00,Monday
582,8100704.051964467
619,0.0
1064,8100704.051964467
1113,0.0
2,8, 1, 8, 0, 1, 0.00,60.00,Tuesday
582,8318676.816757711
619,0.0
1064,8318676.816757711
1113,0.0
2,8, 1, 8, 0, 2, 0.00,60.00,Tuesday
582,8528930.597859817
619,0.0
1064,8528930.597859817
1113,0.0
2,8, 1, 8, 0, 3, 0.00,60.00,Tuesday
582,8689907.05035442
619,0.0
1064,8689907.05035442
1113,0.0
2,8, 1, 8, 0, 4, 0.00,60.00,Tuesday
582,8827042.817325077
619,0.0
1064,8827042.817325077
1113,0.0
2,8, 1, 8, 0, 5, 0.00,60.00,Tuesday
582,8963181.801792818
619,0.0
1064,8963181.801792818
1113,0.0
2,8, 1, 8, 0, 6, 0.00,60.00,Tuesday
582,9134777.075840109
619,0.0
1064,9134777.075840105
1113,0.0
2,8, 1, 8, 0, 7, 0.00,60.00,Tuesday
582,8751854.82751041
619,0.0
1064,8751854.827510409
1113,0.0
2,8, 1, 8, 0, 8, 0.00,60.00,Tuesday
582,8436162.42342513
619,0.0
1064,8436162.423425135
1113,0.0
2,8, 1, 8, 0, 9, 0.00,60.00,Tuesday
582,9017936.83836273
619,0.0
1064,9017936.83836273
1113,0.0
2,8, 1, 8, 0,10, 0.00,60.00,Tuesday
582,8851284.037787918
619,0.0
1064,8851284.037787918
1113,0.0
2,8, 1, 8, 0,11, 0.00,60.00,Tuesday
582,8232562.158169076
619,0.0
1064,8232569.944414708
1113,0.0
2,8, 1, 8, 0,12, 0.00,60.00,Tuesday
582,7316651.947814701
619,0.0
1064,7316678.247017298
1113,0.0
2,8, 1, 8, 0,13, 0.00,60.00,Tuesday
582,7171827.143270602
619,0.0
1064,7171827.143270602
1113,0.0
2,8, 1, 8, 0,14, 0.00,60.00,Tuesday
582,7633265.447045023
619,0.0
1064,7633269.688001325
1113,0.0
2,8, 1, 8, 0,15, 0.00,60.00,Tuesday
582,7676492.52407834
619,0.0
1064,7676494.863248842
1113,0.0
2,8, 1, 8, 0,16, 0.00,60.00,Tuesday
582,7800912.048589662
619,0.0
1064,7800912.048589662
1113,0.0
2,8, 1, 8, 0,17, 0.00,60.00,Tuesday
582,7603494.798101462
619,0.0
1064,7603511.230216555
1113,0.0
2,8, 1, 8, 0,18, 0.00,60.00,Tuesday
582,7788209.544421173
619,0.0
1064,7788209.544421173
1113,0.0
2,8, 1, 8, 0,19, 0.00,60.00,Tuesday
582,8276917.533686039
619,0.0
1064,8276917.533686038
1113,0.0
2,8, 1, 8, 0,20, 0.00,60.00,Tuesday
582,8266067.889627743
619,0.0
1064,8266067.889627742
1113,0.0
2,8, 1, 8, 0,21, 0.00,60.00,Tuesday
582,8957695.345524572
619,0.0
1064,8957695.345524572
1113,0.0
2,8, 1, 8, 0,22, 0.00,60.00,Tuesday
582,9084449.408270548
619,0.0
1064,9084449.408270548
1113,0.0
2,8, 1, 8, 0,23, 0.00,60.00,Tuesday
582,9283521.355797876
619,0.0
1064,9283521.355797876
1113,0.0
2,8, 1, 8, 0,24, 0.00,60.00,Tuesday
582,9805464.726650104
619,0.0
1064,9805464.726650104
1113,0.0
2,9, 1, 9, 0, 1, 0.00,60.00,Wednesday
582,9936679.480312597
619,0.0
1064,9936679.480312597
1113,0.0
2,9, 1, 9, 0, 2, 0.00,60.00,Wednesday
582,10072734.371428177
619,0.0
1064,10072734.371428177
1113,0.0
2,9, 1, 9, 0, 3, 0.00,60.00,Wednesday
582,10195818.485486567
619,0.0
1064,10195818.485486567
1113,0.0
2,9, 1, 9, 0, 4, 0.00,60.00,Wednesday
582,10313704.952998169
619,0.0
1064,10313704.952998169
1113,0.0
2,9, 1, 9, 0, 5, 0.00,60.00,Wednesday
582,10432374.336374902
619,0.0
1064,10432374.3363749
1113,0.0
2,9, 1, 9, 0, 6, 0.00,60.00,Wednesday
582,10656902.159859699
619,0.0
1064,10656902.159859699
1113,0.0
2,9, 1, 9, 0, 7, 0.00,60.00,Wednesday
582,10197044.043077227
619,0.0
1064,10197044.043077227
1113,0.0
2,9, 1, 9, 0, 8, 0.00,60.00,Wednesday
582,9744446.032225127
619,0.0
1064,9744446.032225127
1113,0.0
2,9, 1, 9, 0, 9, 0.00,60.00,Wednesday
582,10243382.23955819
619,0.0
1064,10243382.239558189
1113,0.0
2,9, 1, 9, 0,10, 0.00,60.00,Wednesday
582,10084855.893610053
619,0.0
1064,10084855.893610053
1113,0.0
2,9, 1, 9, 0,11, 0.00,60.00,Wednesday
582,9778538.201027357
619,0.0
1064,9778515.696700799
1113,0.0
2,9, 1, 9, 0,12, 0.00,60.00,Wednesday
582,8899835.933772864
619,0.0
1064,8899744.324980203
1113,0.0
2,9, 1, 9, 0,13, 0.00,60.00,Wednesday
582,8677008.380583654
619,0.0
1064,8677008.380583654
1113,0.0
2,9, 1, 9, 0,14, 0.00,60.00,Wednesday
582,9007534.725659688
619,0.0
1064,9007522.125920885
1113,0.0
2,9, 1, 9, 0,15, 0.00,60.00,Wednesday
582,9011794.907243606
619,0.0
1064,9011783.415910824
1113,0.0
2,9, 1, 9, 0,16, 0.00,60.00,Wednesday
582,9105771.289351086
619,0.0
1064,9105771.289351086
1113,0.0
2,9, 1, 9, 0,17, 0.00,60.00,Wednesday
582,8861844.823551925
619,0.0
1064,8861838.056185177
1113,0.0
2,9, 1, 9, 0,18, 0.00,60.00,Wednesday
582,9028016.852679275
619,0.0
1064,9028016.852679275
1113,0.0
2,9, 1, 9, 0,19, 0.00,60.00,Wednesday
582,9517164.287511593
619,0.0
1064,9517164.287511595
1113,0.0
2,9, 1, 9, 0,20, 0.00,60.00,Wednesday
582,9487980.76809938
619,0.0
1064,9487980.768099379
1113,0.0
2,9, 1, 9, 0,21, 0.00,60.00,Wednesday
582,10168814.565559684
619,0.0
1064,10168814.565559682
1113,0.0
2,9, 1, 9, 0,22, 0.00,60.00,Wednesday
582,10289949.499214869
619,0.0
1064,10289949.499214869
1113,0.0
2,9, 1, 9, 0,23, 0.00,60.00,Wednesday
582,10553723.407225436
619,0.0
1064,10553723.407225436
1113,0.0
2,9, 1, 9, 0,24, 0.00,60.00,Wednesday
582,11133825.14229109
619,0.0
1064,11133825.14229109
1113,0.0
2,10, 1,10, 0, 1, 0.00,60.00,Thursday
582,11298405.408581337
619,0.0
1064,11298405.408581336
1113,0.0
2,10, 1,10, 0, 2, 0.00,60.00,Thursday
582,11472920.337327876
619,0.0
1064,11472920.337327877
1113,0.0
2,10, 1,10, 0, 3, 0.00,60.00,Thursday
582,11693288.55162129
619,0.0
1064,11693288.551621288
1113,0.0
2,10, 1,10, 0, 4, 0.00,60.00,Thursday
582,11949349.768253074
619,0.0
1064,11949349.768253074
1113,0.0
2,10, 1,10, 0, 5, 0.00,60.00,Thursday
582,12194618.992975627
619,0.0
1064,12194618.992975625
1113,0.0
2,10, 1,10, 0, 6, 0.00,60.00,Thursday
582,12423967.271021393
619,0.0
1064,12423967.271021393
1113,0.0
2,10, 1,10, 0, 7, 0.00,60.00,Thursday
582,12068802.430901334
619,0.0
1064,12068802.430901332
1113,0.0
2,10, 1,10, 0, 8, 0.00,60.00,Thursday
582,11801090.755969366
619,0.0
1064,11801090.755969366
1113,0.0
2,10, 1,10, 0, 9, 0.00,60.00,Thursday
582,12382144.487819098
619,0.0
1064,12382144.487819098
1113,0.0
2,10, 1,10, 0,10, 0.00,60.00,Thursday
582,11914678.955077868
619,0.0
1064,11914678.955077872
1113,0.0
2,10, 1,10, 0,11, 0.00,60.00,Thursday
582,11031809.575229202
619,0.0
1064,11031809.575229204
1113,0.0
2,10, 1,10, 0,12, 0.00,60.00,Thursday
582,9748888.928276264
619,0.0
1064,9748930.949104384
1113,0.0
2,10, 1,10, 0,13, 0.00,60.00,Thursday
582,9196738.692295205
619,0.0
1064,9196738.692295205
1113,0.0
2,10, 1,10, 0,14, 0.00,60.00,Thursday
582,9017351.710649915
619,0.0
1064,9017351.710649914
1113,0.0
2,10, 1,10, 0,15, 0.00,60.00,Thursday
582,8562653.405669736
619,0.0
1064,8562651.166578358
1113,0.0
2,10, 1,10, 0,16, 0.00,60.00,Thursday
582,8443207.85727682
619,0.0
1064,8443207.857276822
1113,0.0
2,10, 1,10, 0,17, 0.00,60.00,Thursday
582,8436952.144649309
619,0.0
1064,8436954.958055905
1113,0.0
2,10, 1,10, 0,18, 0.00,60.00,Thursday
582,8765056.847858435
619,0.0
1064,8765056.847858433
1113,0.0
2,10, 1,10, 0,19, 0.00,60.00,Thursday
582,9360895.764876401
619,0.0
1064,9360895.764876403
1113,0.0
2,10, 1,10, 0,20, 0.00,60.00,Thursday
582,9469882.50130642
619,0.0
1064,9469882.501306419
1113,0.0
2,10, 1,10, 0,21, 0.00,60.00,Thursday
582,10300821.30332871
619,0.0
1064,10300821.30332871
1113,0.0
2,10, 1,10, 0,22, 0.00,60.00,Thursday
582,10579994.551328982
619,0.0
1064,10579994.551328982
1113,0.0
2,10, 1,10, 0,23, 0.00,60.00,Thursday
582,10882664.909893953
619,0.0
1064,10882664.90989395
1113,0.0
2,10, 1,10, 0,24, 0.00,60.00,Thursday
582,11468937.8437483
619,0.0
1064,11468937.8437483
1113,0.0
2,11, 1,11, 0, 1, 0.00,60.00,Friday
582,11676636.199627765
619,0.0
1064,11676636.199627765
1113,0.0
2,11, 1,11, 0, 2, 0.00,60.00,Friday
582,11829999.458551212
619,0.0
1064,11829999.45855121
1113,0.0
2,11, 1,11, 0, 3, 0.00,60.00,Friday
582,11965417.944339429
619,0.0
1064,11965417.944339429
1113,0.0
2,11, 1,11, 0, 4, 0.00,60.00,Friday
582,11911935.690740947
619,0.0
1064,11911935.690740949
1113,0.0
2,11, 1,11, 0, 5, 0.00,60.00,Friday
582,11903662.645523267
619,0.0
1064,11903662.645523267
1113,0.0
2,11, 1,11, 0, 6, 0.00,60.00,Friday
582,11961306.515581277
619,0.0
1064,11961306.515581277
1113,0.0
2,11, 1,11, 0, 7, 0.00,60.00,Friday
582,11443758.693376834
619,0.0
1064,11443758.693376832
1113,0.0
2,11, 1,11, 0, 8, 0.00,60.00,Friday
582,11005974.467771488
619,0.0
1064,11005974.467771486
1113,0.0
2,11, 1,11, 0, 9, 0.00,60.00,Friday
582,11532231.005940313
619,0.0
1064,11532231.005940315
1113,0.0
2,11, 1,11, 0,10, 0.00,60.00,Friday
582,11390837.725398869
619,0.0
1064,11390837.725398869
1113,0.0
2,11, 1,11, 0,11, 0.00,60.00,Friday
582,11061752.134609623
619,0.0
1064,11061736.010738075
1113,0.0
2,11, 1,11, 0,12, 0.00,60.00,Friday
582,10172980.22998782
619,0.0
1064,10172917.041333532
1113,0.0
2,11, 1,11, 0,13, 0.00,60.00,Friday
582,9955734.530596726
619,0.0
1064,9955734.530596726
1113,0.0
2,11, 1,11, 0,14, 0.00,60.00,Friday
582,10190496.82403958
619,0.0
1064,10190496.82403958
1113,0.0
2,11, 1,11, 0,15, 0.00,60.00,Friday
582,10079301.951589544
619,0.0
1064,10079284.383750454
1113,0.0
2,11, 1,11, 0,16, 0.00,60.00,Friday
582,10075926.419998134
619,0.0
1064,10075926.419998134
1113,0.0
2,11, 1,11, 0,17, 0.00,60.00,Friday
582,9761185.43771505
619,0.0
1064,9761163.833417342
1113,0.0
2,11, 1,11, 0,18, 0.00,60.00,Friday
582,9827314.33447399
619,0.0
1064,9827314.33447399
1113,0.0
2,11, 1,11, 0,19, 0.00,60.00,Friday
582,10180920.5460852
619,0.0
1064,10180920.5460852
1113,0.0
2,11, 1,11, 0,20, 0.00,60.00,Friday
582,10088813.272246765
619,0.0
1064,10088813.272246765
1113,0.0
2,11, 1,11, 0,21, 0.00,60.00,Friday
582,10749597.353505327
619,0.0
1064,10749597.353505327
1113,0.0
2,11, 1,11, 0,22, 0.00,60.00,Friday
582,10847484.56723806
619,0.0
1064,10847484.567238063
1113,0.0
2,11, 1,11, 0,23, 0.00,60.00,Friday
582,11125881.320524972
619,0.0
1064,11125881.320524972
1113,0.0
2,11, 1,11, 0,24, 0.00,60.00,Friday
582,11753785.44212065
619,0.0
1064,11753785.442120653
1113,0.0
2,12, 1,12, 0, 1, 0.00,60.00,Saturday
582,11924051.310928364
619,0.0
1064,11924051.310928364
1113,0.0
2,12, 1,12, 0, 2, 0.00,60.00,Saturday
582,12006416.643408861
619,0.0
1064,12006416.643408861
1113,0.0
2,12, 1,12, 0, 3, 0.00,60.00,Saturday
582,12021525.352811154
619,0.0
1064,12021525.352811153
1113,0.0
2,12, 1,12, 0, 4, 0.00,60.00,Saturday
582,12085824.370056775
619,0.0
1064,12085824.37005677
1113,0.0
2,12, 1,12, 0, 5, 0.00,60.00,Saturday
582,12117113.40777863
619,0.0
1064,12117113.40777863
1113,0.0
2,12, 1,12, 0, 6, 0.00,60.00,Saturday
582,12126380.324642811
619,0.0
1064,12126380.32464281
1113,0.0
2,12, 1,12, 0, 7, 0.00,60.00,Saturday
582,11728490.222022232
619,0.0
1064,11728490.222022232
1113,0.0
2,12, 1,12, 0, 8, 0.00,60.00,Saturday
582,11412806.003213633
619,0.0
1064,11412806.003213633
1113,0.0
2,12, 1,12, 0, 9, 0.00,60.00,Saturday
582,11882714.018117046
619,0.0
1064,11882714.018117046
1113,0.0
2,12, 1,12, 0,10, 0.00,60.00,Saturday
582,11714662.40522032
619,0.0
1064,11714662.405220323
1113,0.0
2,12, 1,12, 0,11, 0.00,60.00,Saturday
582,11416570.87175154
619,0.0
1064,11416570.871751542
1113,0.0
2,12, 1,12, 0,12, 0.00,60.00,Saturday
582,10446332.5539425
619,0.0
1064,10446315.34091442
1113,0.0
2,12, 1,12, 0,13, 0.00,60.00,Saturday
582,10177985.564622365
619,0.0
1064,10177985.564622365
1113,0.0
2,12, 1,12, 0,14, 0.00,60.00,Saturday
582,10414011.040229138
619,0.0
1064,10414011.040229138
1113,0.0
2,12, 1,12, 0,15, 0.00,60.00,Saturday
582,10152724.133828249
619,0.0
1064,10152704.628419824
1113,0.0
2,12, 1,12, 0,16, 0.00,60.00,Saturday
582,10127937.851448005
619,0.0
1064,10127937.851448004
1113,0.0
2,12, 1,12, 0,17, 0.00,60.00,Saturday
582,9950462.938199029
619,0.0
1064,9950470.373586854
1113,0.0
2,12, 1,12, 0,18, 0.00,60.00,Saturday
582,10163364.19028831
619,0.0
1064,10163364.19028831
1113,0.0
2,12, 1,12, 0,19, 0.00,60.00,Saturday
582,10646480.332291179
619,0.0
1064,10646480.33229118
1113,0.0
2,12, 1,12, 0,20, 0.00,60.00,Saturday
582,10646046.21705291
619,0.0
1064,10646046.21705291
1113,0.0
2,12, 1,12, 0,21, 0.00,60.00,Saturday
582,11398448.009129428
619,0.0
1064,11398448.009129426
1113,0.0
2,12, 1,12, 0,22, 0.00,60.00,Saturday
582,11638034.661822672
619,0.0
1064,11638034.661822672
1113,0.0
2,12, 1,12, 0,23, 0.00,60.00,Saturday
582,11892510.983240325
619,0.0
1064,11892510.983240322
1113,0.0
2,12, 1,12, 0,24, 0.00,60.00,Saturday
582,12501642.21063734
619,0.0
1064,12501642.21063734
1113,0.0
2,13, 1,13, 0, 1, 0.00,60.00,Sunday
582,12721109.863610769
619,0.0
1064,12721109.863610769
1113,0.0
2,13, 1,13, 0, 2, 0.00,60.00,Sunday
582,12874504.102459778
619,0.0
1064,12874504.102459778
1113,0.0
2,13, 1,13, 0, 3, 0.00,60.00,Sunday
582,13044237.811374039
619,0.0
1064,13044237.811374035
1113,0.0
2,13, 1,13, 0, 4, 0.00,60.00,Sunday
582,13168991.789999476
619,0.0
1064,13168991.789999476
1113,0.0
2,13, 1,13, 0, 5, 0.00,60.00,Sunday
582,13251708.67744619
619,0.0
1064,13251708.677446193
1113,0.0
2,13, 1,13, 0, 6, 0.00,60.00,Sunday
582,13461056.550453566
619,0.0
1064,13461056.550453566
1113,0.0
2,13, 1,13, 0, 7, 0.00,60.00,Sunday